# vtk DataFile Version 2.0
Cos_0004
ASCII
DATASET UNSTRUCTURED_GRID

POINTS        14 float
     0.00000     0.00000     0.00000
     1.20000     0.00000     0.00000
     1.20000     0.95499     0.00000
     0.00000     0.95499     0.00000
     0.00000     0.00000     0.95499
     1.20000     0.00000     0.95499
     1.20000     0.95499     0.95499
     0.00000     0.95499     0.95499
     0.60000     0.47749     0.00000
     0.60000     0.47749     0.95499
     0.60000     0.00000     0.47749
     1.20000     0.47749     0.47749
     0.60000     0.95499     0.47749
     0.00000     0.47749     0.47749

CELLS        24       120
4            8          12          13          11
4           10          13           9          11
4           10           8          13          11
4           13          12           9          11
4           13           4           0          10
4            9           4          10           5
4            7           9           4          13
4            7           3          12          13
4            3           0           8          13
4           12           7           9           6
4            3          12           8           2
4            6           5           9          11
4           11           5          10           1
4            0           8          10           1
4            2           6          12          11
4           11           8           2           1
4           13           0           8          10
4            9           4          13          10
4            9           7          12          13
4            8          12           3          13
4            5          10           9          11
4           12           8           2          11
4            9          12           6          11
4           11          10           8           1

CELL_TYPES        24
10
10
10
10
10
10
10
10
10
10
10
10
10
10
10
10
10
10
10
10
10
10
10
10

CELL_DATA        24
SCALARS Cosserat float 6
LOOKUP_TABLE default
 0.22000E+00 0.62450E-16 0.27756E-16 0.29281E-12-0.22089E-16-0.37342E-12
 0.22000E+00-0.48572E-16 0.00000E+00-0.38176E-12 0.22089E-16 0.28105E-12
 0.22000E+00-0.48572E-16 0.00000E+00-0.38176E-12-0.22089E-16-0.37342E-12
 0.22000E+00 0.62450E-16 0.27756E-16 0.29281E-12 0.22089E-16 0.28105E-12
 0.22000E+00 0.91475E-13 0.79901E-13 0.69263E-27 0.40201E-14 0.65470E-13
 0.22000E+00 0.13878E-16 0.13878E-16 0.21960E-12-0.16156E-24-0.31048E-12
 0.22000E+00 0.16605E-13 0.44964E-14 0.37727E-13 0.47667E-13 0.10523E-12
 0.22000E+00 0.15009E-13 0.20935E-13 0.10240E-12 0.48639E-13 0.39759E-13
 0.22000E+00 0.76480E-13 0.82934E-13 0.64675E-13 0.49920E-14 0.84963E-27
 0.22000E+00 0.13878E-16 0.13878E-16-0.14415E-12 0.85333E-25-0.15363E-12
 0.22000E+00 0.13878E-16 0.13878E-16-0.30552E-12-0.16898E-24 0.23315E-12
 0.22000E+00-0.16605E-13-0.45033E-14 0.37727E-13-0.47623E-13 0.10523E-12
 0.22000E+00-0.91600E-13-0.79936E-13-0.69263E-27-0.40201E-14 0.65470E-13
 0.22000E+00 0.13878E-16 0.13878E-16 0.43487E-12 0.31994E-24 0.44142E-12
 0.22000E+00-0.14877E-13-0.20879E-13 0.10240E-12-0.48639E-13 0.39759E-13
 0.22000E+00-0.76494E-13-0.82941E-13 0.64675E-13-0.50362E-14-0.85715E-27
 0.22000E+00 0.19203E-12 0.19027E-12 0.26566E-13-0.60567E-13 0.34000E-13
 0.22000E+00 0.11760E-12 0.10780E-12-0.81070E-13 0.64587E-13-0.14716E-13
 0.22000E+00 0.12386E-12 0.12156E-12 0.74341E-13-0.16920E-13 0.63712E-13
 0.22000E+00 0.10931E-12 0.11752E-12-0.63470E-14 0.65559E-13-0.70139E-13
 0.22000E+00-0.11766E-12-0.10782E-12-0.81092E-13-0.64565E-13-0.14716E-13
 0.22000E+00-0.10925E-12-0.11750E-12-0.63691E-14-0.65581E-13-0.70139E-13
 0.22000E+00-0.12381E-12-0.12156E-12 0.74319E-13 0.16942E-13 0.63712E-13
 0.22000E+00-0.19209E-12-0.19029E-12 0.26544E-13 0.60545E-13 0.34000E-13
