# vtk DataFile Version 2.0
Cos_0001
ASCII
DATASET UNSTRUCTURED_GRID

POINTS        14 float
     0.00000     0.00000     0.00000
     1.04000     0.00000     0.00000
     1.04000     0.99181     0.00000
     0.00000     0.99181     0.00000
     0.00000     0.00000     0.99181
     1.04000     0.00000     0.99181
     1.04000     0.99181     0.99181
     0.00000     0.99181     0.99181
     0.52000     0.49590     0.00000
     0.52000     0.49590     0.99181
     0.52000     0.00000     0.49590
     1.04000     0.49590     0.49590
     0.52000     0.99181     0.49590
     0.00000     0.49590     0.49590

CELLS        24       120
4            8          12          13          11
4           10          13           9          11
4           10           8          13          11
4           13          12           9          11
4           13           4           0          10
4            9           4          10           5
4            7           9           4          13
4            7           3          12          13
4            3           0           8          13
4           12           7           9           6
4            3          12           8           2
4            6           5           9          11
4           11           5          10           1
4            0           8          10           1
4            2           6          12          11
4           11           8           2           1
4           13           0           8          10
4            9           4          13          10
4            9           7          12          13
4            8          12           3          13
4            5          10           9          11
4           12           8           2          11
4            9          12           6          11
4           11          10           8           1

CELL_TYPES        24
10
10
10
10
10
10
10
10
10
10
10
10
10
10
10
10
10
10
10
10
10
10
10
10

CELL_DATA        24
SCALARS Cosserat float 6
LOOKUP_TABLE default
 0.40800E-01 0.10148E-15 0.10408E-16-0.96973E-13-0.27081E-25 0.16191E-12
 0.40800E-01 0.95410E-17 0.10061E-15 0.13857E-12-0.27277E-25-0.10721E-12
 0.40800E-01-0.20817E-16-0.20817E-16 0.13857E-12-0.45880E-16 0.16191E-12
 0.40800E-01 0.13097E-15 0.13097E-15-0.96973E-13 0.45880E-16-0.10721E-12
 0.40800E-01-0.40072E-15-0.82920E-14-0.38811E-27 0.50468E-14-0.31520E-13
 0.40800E-01 0.24286E-16-0.66787E-16-0.70625E-13 0.45880E-16 0.11098E-12
 0.40800E-01 0.10076E-13-0.12108E-14-0.18260E-13-0.31061E-13-0.49184E-13
 0.40800E-01 0.16476E-13 0.17577E-13-0.52579E-13-0.34961E-13-0.17664E-13
 0.40800E-01-0.16388E-13-0.11892E-13-0.34318E-13 0.11470E-14-0.96040E-28
 0.40800E-01-0.97145E-16-0.97145E-16 0.34058E-13-0.91761E-16 0.26110E-13
 0.40800E-01-0.67654E-16 0.23419E-16 0.12982E-12 0.45880E-16-0.61484E-13
 0.40800E-01-0.10121E-13 0.11640E-14-0.18306E-13 0.31061E-13-0.49275E-13
 0.40800E-01 0.35215E-15 0.82443E-14 0.38868E-27-0.50468E-14-0.31566E-13
 0.40800E-01 0.54644E-16 0.54644E-16-0.19850E-12 0.76667E-25-0.17406E-12
 0.40800E-01-0.16523E-13-0.17623E-13-0.52671E-13 0.34961E-13-0.17710E-13
 0.40800E-01 0.16341E-13 0.11846E-13-0.34364E-13-0.11470E-14 0.96168E-28
 0.40800E-01-0.64657E-13-0.63557E-13-0.29953E-13 0.36016E-13-0.60634E-14
 0.40800E-01-0.25396E-13-0.34390E-13 0.33985E-13-0.30969E-13 0.19149E-14
 0.40800E-01-0.42991E-13-0.45285E-13-0.31423E-13-0.91761E-16-0.40518E-13
 0.40800E-01-0.30190E-13-0.26796E-13 0.16457E-13-0.34869E-13 0.50225E-13
 0.40800E-01 0.25426E-13 0.34419E-13 0.33962E-13 0.31015E-13 0.18460E-14
 0.40800E-01 0.30221E-13 0.26827E-13 0.16388E-13 0.34915E-13 0.50202E-13
 0.40800E-01 0.43020E-13 0.45314E-13-0.31491E-13 0.45880E-16-0.40586E-13
 0.40800E-01 0.64687E-13 0.63587E-13-0.29976E-13-0.36062E-13-0.60864E-14
