# vtk DataFile Version 2.0
Cos_0002
ASCII
DATASET UNSTRUCTURED_GRID

POINTS        14 float
     0.00000     0.00000     0.00000
     1.09333     0.00000     0.00000
     1.09333     0.98027     0.00000
     0.00000     0.98027     0.00000
     0.00000     0.00000     0.98027
     1.09333     0.00000     0.98027
     1.09333     0.98027     0.98027
     0.00000     0.98027     0.98027
     0.54667     0.49013     0.00000
     0.54667     0.49013     0.98027
     0.54667     0.00000     0.49013
     1.09333     0.49013     0.49013
     0.54667     0.98027     0.49013
     0.00000     0.49013     0.49013

CELLS        24       120
4            8          12          13          11
4           10          13           9          11
4           10           8          13          11
4           13          12           9          11
4           13           4           0          10
4            9           4          10           5
4            7           9           4          13
4            7           3          12          13
4            3           0           8          13
4           12           7           9           6
4            3          12           8           2
4            6           5           9          11
4           11           5          10           1
4            0           8          10           1
4            2           6          12          11
4           11           8           2           1
4           13           0           8          10
4            9           4          13          10
4            9           7          12          13
4            8          12           3          13
4            5          10           9          11
4           12           8           2          11
4            9          12           6          11
4           11          10           8           1

CELL_TYPES        24
10
10
10
10
10
10
10
10
10
10
10
10
10
10
10
10
10
10
10
10
10
10
10
10

CELL_DATA        24
SCALARS Cosserat float 6
LOOKUP_TABLE default
 0.97689E-01 0.17347E-16-0.24286E-16 0.12314E-11 0.22673E-16-0.15246E-11
 0.97689E-01 0.48572E-16 0.93675E-16-0.15042E-11-0.22673E-16 0.12194E-11
 0.97689E-01 0.17347E-16-0.24286E-16-0.15042E-11-0.22673E-16-0.15246E-11
 0.97689E-01 0.48572E-16 0.93675E-16 0.12314E-11 0.22673E-16 0.12194E-11
 0.97689E-01 0.23057E-12 0.20291E-12 0.44165E-26 0.58950E-14 0.29997E-12
 0.97689E-01 0.34694E-17-0.86736E-16 0.92535E-12 0.45346E-16-0.11904E-11
 0.97689E-01-0.71818E-14-0.29855E-13 0.18497E-12 0.21073E-12 0.49038E-12
 0.97689E-01-0.33008E-13-0.11605E-13 0.48725E-12 0.22097E-12 0.19041E-12
 0.97689E-01 0.21034E-12 0.22675E-12 0.30228E-12 0.16143E-13 0.12188E-25
 0.97689E-01 0.34694E-17-0.86736E-16-0.55542E-12-0.45346E-16-0.56451E-12
 0.97689E-01 0.34694E-16 0.34694E-16-0.12141E-11-0.34515E-23 0.94528E-12
 0.97689E-01 0.72234E-14 0.29806E-13 0.18497E-12-0.21073E-12 0.49029E-12
 0.97689E-01-0.23053E-12-0.20296E-12-0.44159E-26-0.58950E-14 0.29992E-12
 0.97689E-01 0.34694E-16 0.34694E-16 0.18186E-11 0.65371E-23 0.17903E-11
 0.97689E-01 0.33057E-13 0.11564E-13 0.48725E-12-0.22097E-12 0.19036E-12
 0.97689E-01-0.21029E-12-0.22680E-12 0.30228E-12-0.16143E-13-0.12188E-25
 0.97689E-01 0.72349E-12 0.71555E-12 0.15723E-12-0.29010E-12 0.13287E-12
 0.97689E-01 0.42179E-12 0.40207E-12-0.28941E-12 0.29600E-12 0.14521E-13
 0.97689E-01 0.48294E-12 0.47999E-12 0.33800E-12-0.85274E-13 0.32748E-12
 0.97689E-01 0.39875E-12 0.42311E-12 0.86675E-14 0.30625E-12-0.28964E-12
 0.97689E-01-0.42173E-12-0.40205E-12-0.28941E-12-0.29598E-12 0.14452E-13
 0.97689E-01-0.39869E-12-0.42309E-12 0.86675E-14-0.30622E-12-0.28967E-12
 0.97689E-01-0.48287E-12-0.47997E-12 0.33800E-12 0.85251E-13 0.32741E-12
 0.97689E-01-0.72343E-12-0.71554E-12 0.15723E-12 0.29008E-12 0.13285E-12
