# vtk DataFile Version 2.0
Cos_0003
ASCII
DATASET UNSTRUCTURED_GRID

POINTS        14 float
     0.00000     0.00000     0.00000
     1.14667     0.00000     0.00000
     1.14667     0.96800     0.00000
     0.00000     0.96800     0.00000
     0.00000     0.00000     0.96800
     1.14667     0.00000     0.96800
     1.14667     0.96800     0.96800
     0.00000     0.96800     0.96800
     0.57333     0.48400     0.00000
     0.57333     0.48400     0.96800
     0.57333     0.00000     0.48400
     1.14667     0.48400     0.48400
     0.57333     0.96800     0.48400
     0.00000     0.48400     0.48400

CELLS        24       120
4            8          12          13          11
4           10          13           9          11
4           10           8          13          11
4           13          12           9          11
4           13           4           0          10
4            9           4          10           5
4            7           9           4          13
4            7           3          12          13
4            3           0           8          13
4           12           7           9           6
4            3          12           8           2
4            6           5           9          11
4           11           5          10           1
4            0           8          10           1
4            2           6          12          11
4           11           8           2           1
4           13           0           8          10
4            9           4          13          10
4            9           7          12          13
4            8          12           3          13
4            5          10           9          11
4           12           8           2          11
4            9          12           6          11
4           11          10           8           1

CELL_TYPES        24
10
10
10
10
10
10
10
10
10
10
10
10
10
10
10
10
10
10
10
10
10
10
10
10

CELL_DATA        24
SCALARS Cosserat float 6
LOOKUP_TABLE default
 0.15742E+00 0.10061E-15 0.69389E-17-0.88082E-12-0.16300E-23 0.10975E-11
 0.15742E+00 0.69389E-17 0.10061E-15 0.11099E-11-0.15645E-23-0.85494E-12
 0.15742E+00-0.24286E-16-0.24286E-16 0.11099E-11-0.44779E-16 0.10975E-11
 0.15742E+00 0.13184E-15 0.13184E-15-0.88082E-12 0.44779E-16-0.85494E-12
 0.15742E+00-0.22274E-12-0.19336E-12 0.48659E-26-0.92693E-14-0.20495E-12
 0.15742E+00 0.52042E-16 0.52042E-16-0.65923E-12-0.15645E-23 0.89031E-12
 0.15742E+00-0.22451E-13 0.69215E-14-0.12216E-12-0.14549E-12-0.33253E-12
 0.15742E+00-0.13788E-13-0.29730E-13-0.32581E-12-0.14961E-12-0.12758E-12
 0.15742E+00-0.18854E-12-0.20448E-12-0.20366E-12-0.13389E-13 0.69839E-26
 0.15742E+00 0.20817E-16-0.69389E-16 0.41492E-12-0.44779E-16 0.43533E-12
 0.15742E+00-0.69389E-16 0.20817E-16 0.88586E-12 0.44779E-16-0.69053E-12
 0.15742E+00 0.22572E-13-0.68071E-14-0.12216E-12 0.14549E-12-0.33257E-12
 0.15742E+00 0.22274E-12 0.19345E-12-0.48424E-26 0.92245E-14-0.20495E-12
 0.15742E+00 0.52042E-16 0.52042E-16-0.12932E-11 0.30692E-23-0.13002E-11
 0.15742E+00 0.13881E-13 0.29730E-13-0.32586E-12 0.14965E-12-0.12762E-12
 0.15742E+00 0.18852E-12 0.20446E-12-0.20370E-12 0.13389E-13-0.69855E-26
 0.15742E+00-0.54550E-12-0.54009E-12-0.91632E-13 0.19298E-12-0.10134E-12
 0.15742E+00-0.32800E-12-0.30404E-12 0.22536E-12-0.20225E-12 0.17695E-13
 0.15742E+00-0.35798E-12-0.35256E-12-0.23294E-12 0.56758E-13-0.20977E-12
 0.15742E+00-0.30657E-12-0.32793E-12 0.25539E-14-0.20636E-12 0.20350E-12
 0.15742E+00 0.32806E-12 0.30419E-12 0.22534E-12 0.20225E-12 0.17673E-13
 0.15742E+00 0.30662E-12 0.32798E-12 0.24868E-14 0.20641E-12 0.20348E-12
 0.15742E+00 0.35813E-12 0.35262E-12-0.23296E-12-0.56758E-13-0.20984E-12
 0.15742E+00 0.54554E-12 0.54012E-12-0.91655E-13-0.19302E-12-0.10137E-12
