# vtk DataFile Version 2.0
Cos_0002
ASCII
DATASET UNSTRUCTURED_GRID

POINTS        14 float
     0.00000     0.00000     0.00000
     1.09333     0.00000     0.00000
     1.09333     0.98027     0.00000
     0.00000     0.98027     0.00000
     0.00000     0.00000     0.98027
     1.09333     0.00000     0.98027
     1.09333     0.98027     0.98027
     0.00000     0.98027     0.98027
     0.54667     0.49013     0.00000
     0.54667     0.49013     0.98027
     0.54667     0.00000     0.49013
     1.09333     0.49013     0.49013
     0.54667     0.98027     0.49013
     0.00000     0.49013     0.49013

CELLS        24       120
4            8          12          13          11
4           10          13           9          11
4           10           8          13          11
4           13          12           9          11
4           13           4           0          10
4            9           4          10           5
4            7           9           4          13
4            7           3          12          13
4            3           0           8          13
4           12           7           9           6
4            3          12           8           2
4            6           5           9          11
4           11           5          10           1
4            0           8          10           1
4            2           6          12          11
4           11           8           2           1
4           13           0           8          10
4            9           4          13          10
4            9           7          12          13
4            8          12           3          13
4            5          10           9          11
4           12           8           2          11
4            9          12           6          11
4           11          10           8           1

CELL_TYPES        24
10
10
10
10
10
10
10
10
10
10
10
10
10
10
10
10
10
10
10
10
10
10
10
10

CELL_DATA        24
SCALARS Cosserat float 6
LOOKUP_TABLE default
 0.97689E-01 0.34694E-16 0.34694E-16 0.00000E+00 0.00000E+00 0.00000E+00
 0.97689E-01 0.34694E-16 0.34694E-16 0.00000E+00 0.00000E+00 0.00000E+00
 0.97689E-01 0.34694E-16 0.34694E-16 0.00000E+00 0.00000E+00 0.00000E+00
 0.97689E-01 0.34694E-16 0.34694E-16 0.00000E+00 0.00000E+00 0.00000E+00
 0.97689E-01 0.34694E-16 0.34694E-16 0.00000E+00 0.00000E+00 0.00000E+00
 0.97689E-01 0.34694E-16 0.34694E-16 0.00000E+00 0.00000E+00 0.00000E+00
 0.97689E-01 0.34694E-16 0.34694E-16 0.00000E+00 0.00000E+00 0.00000E+00
 0.97689E-01 0.34694E-16 0.34694E-16 0.00000E+00 0.00000E+00 0.00000E+00
 0.97689E-01 0.34694E-16 0.34694E-16 0.00000E+00 0.00000E+00 0.00000E+00
 0.97689E-01 0.34694E-16 0.34694E-16 0.00000E+00 0.00000E+00 0.00000E+00
 0.97689E-01 0.34694E-16 0.34694E-16 0.00000E+00 0.00000E+00 0.00000E+00
 0.97689E-01 0.34694E-16 0.34694E-16 0.00000E+00 0.00000E+00 0.00000E+00
 0.97689E-01 0.34694E-16 0.34694E-16 0.00000E+00 0.00000E+00 0.00000E+00
 0.97689E-01 0.34694E-16 0.34694E-16 0.00000E+00 0.00000E+00 0.00000E+00
 0.97689E-01 0.34694E-16 0.34694E-16 0.00000E+00 0.00000E+00 0.00000E+00
 0.97689E-01 0.34694E-16 0.34694E-16 0.00000E+00 0.00000E+00 0.00000E+00
 0.97689E-01 0.34694E-16 0.34694E-16 0.00000E+00 0.00000E+00 0.00000E+00
 0.97689E-01 0.34694E-16 0.34694E-16 0.00000E+00 0.00000E+00 0.00000E+00
 0.97689E-01 0.34694E-16 0.34694E-16 0.00000E+00 0.00000E+00 0.00000E+00
 0.97689E-01 0.34694E-16 0.34694E-16 0.00000E+00 0.00000E+00 0.00000E+00
 0.97689E-01 0.34694E-16 0.34694E-16 0.00000E+00 0.00000E+00 0.00000E+00
 0.97689E-01 0.34694E-16 0.34694E-16 0.00000E+00 0.00000E+00 0.00000E+00
 0.97689E-01 0.34694E-16 0.34694E-16 0.00000E+00 0.00000E+00 0.00000E+00
 0.97689E-01 0.34694E-16 0.34694E-16 0.00000E+00 0.00000E+00 0.00000E+00
