# vtk DataFile Version 2.0
Pio_0001
ASCII
DATASET UNSTRUCTURED_GRID

POINTS        14 float
     0.00000     0.00000     0.00000
     1.04000     0.00000     0.00000
     1.04000     0.99181     0.00000
     0.00000     0.99181     0.00000
     0.00000     0.00000     0.99181
     1.04000     0.00000     0.99181
     1.04000     0.99181     0.99181
     0.00000     0.99181     0.99181
     0.52000     0.49590     0.00000
     0.52000     0.49590     0.99181
     0.52000     0.00000     0.49590
     1.04000     0.49590     0.49590
     0.52000     0.99181     0.49590
     0.00000     0.49590     0.49590

CELLS        24       120
4            8          12          13          11
4           10          13           9          11
4           10           8          13          11
4           13          12           9          11
4           13           4           0          10
4            9           4          10           5
4            7           9           4          13
4            7           3          12          13
4            3           0           8          13
4           12           7           9           6
4            3          12           8           2
4            6           5           9          11
4           11           5          10           1
4            0           8          10           1
4            2           6          12          11
4           11           8           2           1
4           13           0           8          10
4            9           4          13          10
4            9           7          12          13
4            8          12           3          13
4            5          10           9          11
4           12           8           2          11
4            9          12           6          11
4           11          10           8           1

CELL_TYPES        24
10
10
10
10
10
10
10
10
10
10
10
10
10
10
10
10
10
10
10
10
10
10
10
10

CELL_DATA        24
SCALARS Piolaaaa float 9
LOOKUP_TABLE default
 0.42432E-01 0.10065E-15 0.10323E-16-0.10085E-12-0.40764E-25 0.16839E-12-0.99682E-13-0.18273E-25 0.15697E-12
 0.42432E-01 0.94628E-17 0.99790E-16 0.14412E-12-0.17847E-25-0.11150E-12 0.13393E-12-0.39323E-25-0.10995E-12
 0.42432E-01-0.20646E-16-0.20646E-16 0.14412E-12-0.45504E-16 0.16839E-12 0.13393E-12-0.45504E-16 0.15697E-12
 0.42432E-01 0.12990E-15 0.12990E-15-0.10085E-12 0.45504E-16-0.11150E-12-0.99682E-13 0.45504E-16-0.10995E-12
 0.42432E-01-0.39744E-15-0.82240E-14-0.40364E-27 0.50055E-14-0.32781E-13-0.38493E-27 0.50055E-14-0.34373E-13
 0.42432E-01 0.24087E-16-0.66240E-16-0.73450E-13 0.45504E-16 0.11541E-12-0.70046E-13 0.45504E-16 0.10384E-12
 0.42432E-01 0.99936E-14-0.12009E-14-0.18991E-13-0.30806E-13-0.51151E-13-0.19914E-13-0.30806E-13-0.53637E-13
 0.42432E-01 0.16341E-13 0.17433E-13-0.54682E-13-0.34674E-13-0.18370E-13-0.57339E-13-0.34674E-13-0.19263E-13
 0.42432E-01-0.16254E-13-0.11795E-13-0.35691E-13 0.11376E-14-0.99881E-28-0.37425E-13 0.11376E-14-0.95253E-28
 0.42432E-01-0.96349E-16-0.96349E-16 0.35421E-13-0.91009E-16 0.27155E-13 0.30169E-13-0.91009E-16 0.22404E-13
 0.42432E-01-0.67100E-16 0.23227E-16 0.13501E-12 0.45504E-16-0.63944E-13 0.12197E-12 0.45504E-16-0.60980E-13
 0.42432E-01-0.10038E-13 0.11545E-14-0.19038E-13 0.30806E-13-0.51246E-13-0.19964E-13 0.30806E-13-0.53737E-13
 0.42432E-01 0.34926E-15 0.81767E-14 0.40423E-27-0.50055E-14-0.32828E-13 0.38549E-27-0.50055E-14-0.34423E-13
 0.42432E-01 0.54196E-16 0.54196E-16-0.20644E-12 0.76039E-25-0.18102E-12-0.19687E-12 0.76039E-25-0.17263E-12
 0.42432E-01-0.16388E-13-0.17479E-13-0.54777E-13 0.34674E-13-0.18418E-13-0.57439E-13 0.34674E-13-0.19313E-13
 0.42432E-01 0.16207E-13 0.11749E-13-0.35739E-13-0.11376E-14 0.10001E-27-0.37476E-13-0.11376E-14 0.95380E-28
 0.42432E-01-0.64127E-13-0.63036E-13-0.31151E-13 0.35721E-13-0.63060E-14-0.31458E-13 0.35721E-13-0.78188E-14
 0.42432E-01-0.25188E-13-0.34108E-13 0.35345E-13-0.30715E-13 0.19915E-14 0.31956E-13-0.30715E-13-0.30178E-14
 0.42432E-01-0.42639E-13-0.44914E-13-0.32680E-13-0.91009E-16-0.42138E-13-0.34719E-13-0.91009E-16-0.43735E-13
 0.42432E-01-0.29943E-13-0.26577E-13 0.17115E-13-0.34583E-13 0.52234E-13 0.11183E-13-0.34583E-13 0.48008E-13
 0.42432E-01 0.25218E-13 0.34137E-13 0.35321E-13 0.30761E-13 0.19199E-14 0.31931E-13 0.30761E-13-0.30929E-14
 0.42432E-01 0.29973E-13 0.26607E-13 0.17044E-13 0.34629E-13 0.52210E-13 0.11108E-13 0.34629E-13 0.47983E-13
 0.42432E-01 0.42668E-13 0.44942E-13-0.32751E-13 0.45504E-16-0.42210E-13-0.34794E-13 0.45504E-16-0.43810E-13
 0.42432E-01 0.64157E-13 0.63066E-13-0.31175E-13-0.35766E-13-0.63298E-14-0.31483E-13-0.35766E-13-0.78439E-14
