# vtk DataFile Version 2.0
Pio_0003
ASCII
DATASET UNSTRUCTURED_GRID

POINTS        14 float
     0.00000     0.00000     0.00000
     1.14667     0.00000     0.00000
     1.14667     0.96800     0.00000
     0.00000     0.96800     0.00000
     0.00000     0.00000     0.96800
     1.14667     0.00000     0.96800
     1.14667     0.96800     0.96800
     0.00000     0.96800     0.96800
     0.57333     0.48400     0.00000
     0.57333     0.48400     0.96800
     0.57333     0.00000     0.48400
     1.14667     0.48400     0.48400
     0.57333     0.96800     0.48400
     0.00000     0.48400     0.48400

CELLS        24       120
4            8          12          13          11
4           10          13           9          11
4           10           8          13          11
4           13          12           9          11
4           13           4           0          10
4            9           4          10           5
4            7           9           4          13
4            7           3          12          13
4            3           0           8          13
4           12           7           9           6
4            3          12           8           2
4            6           5           9          11
4           11           5          10           1
4            0           8          10           1
4            2           6          12          11
4           11           8           2           1
4           13           0           8          10
4            9           4          13          10
4            9           7          12          13
4            8          12           3          13
4            5          10           9          11
4           12           8           2          11
4            9          12           6          11
4           11          10           8           1

CELL_TYPES        24
10
10
10
10
10
10
10
10
10
10
10
10
10
10
10
10
10
10
10
10
10
10
10
10

CELL_DATA        24
SCALARS Piolaaaa float 9
LOOKUP_TABLE default
 0.18051E+00 0.97395E-16 0.67169E-17-0.10100E-11-0.20956E-23 0.12585E-11-0.92690E-12-0.11505E-23 0.98600E-12
 0.18051E+00 0.67169E-17 0.97395E-16 0.12727E-11-0.11111E-23-0.98033E-12 0.10001E-11-0.20531E-23-0.90397E-12
 0.18051E+00-0.23509E-16-0.23509E-16 0.12727E-11-0.43346E-16 0.12585E-11 0.10001E-11-0.43346E-16 0.98600E-12
 0.18051E+00 0.12762E-15 0.12762E-15-0.10100E-11 0.43346E-16-0.98033E-12-0.92690E-12 0.43346E-16-0.90397E-12
 0.18051E+00-0.21561E-12-0.18718E-12 0.55795E-26-0.89727E-14-0.23501E-12 0.47102E-26-0.89727E-14-0.27839E-12
 0.18051E+00 0.50377E-16 0.50377E-16-0.75592E-12-0.15145E-23 0.10209E-11-0.63814E-12-0.84451E-24 0.70183E-12
 0.18051E+00-0.21732E-13 0.67001E-14-0.14007E-12-0.14083E-12-0.38130E-12-0.16593E-12-0.14083E-12-0.45168E-12
 0.18051E+00-0.13346E-13-0.28778E-13-0.37360E-12-0.14482E-12-0.14629E-12-0.44255E-12-0.14482E-12-0.17329E-12
 0.18051E+00-0.18251E-12-0.19794E-12-0.23353E-12-0.12961E-13 0.80083E-26-0.27663E-12-0.12961E-13 0.67605E-26
 0.18051E+00 0.20151E-16-0.67169E-16 0.47577E-12-0.43346E-16 0.49918E-12 0.30628E-12-0.43346E-16 0.32180E-12
 0.18051E+00-0.67169E-16 0.20151E-16 0.10158E-11 0.43346E-16-0.79180E-12 0.69852E-12 0.43346E-16-0.66843E-12
 0.18051E+00 0.21850E-13-0.65893E-14-0.14007E-12 0.14083E-12-0.38135E-12-0.16593E-12 0.14083E-12-0.45174E-12
 0.18051E+00 0.21561E-12 0.18726E-12-0.55526E-26 0.89294E-14-0.23501E-12-0.46874E-26 0.89294E-14-0.27839E-12
 0.18051E+00 0.50377E-16 0.50377E-16-0.14829E-11 0.29710E-23-0.14909E-11-0.12518E-11 0.29710E-23-0.12586E-11
 0.18051E+00 0.13437E-13 0.28778E-13-0.37365E-12 0.14486E-12-0.14634E-12-0.44261E-12 0.14486E-12-0.17335E-12
 0.18051E+00 0.18248E-12 0.19792E-12-0.23358E-12 0.12961E-13-0.80100E-26-0.27669E-12 0.12961E-13-0.67620E-26
 0.18051E+00-0.52805E-12-0.52280E-12-0.10507E-12 0.18680E-12-0.11621E-12-0.12583E-12 0.18680E-12-0.13629E-12
 0.18051E+00-0.31750E-12-0.29431E-12 0.25841E-12-0.19577E-12 0.20290E-13 0.18102E-12-0.19577E-12-0.10105E-12
 0.18051E+00-0.34652E-12-0.34128E-12-0.26710E-12 0.54942E-13-0.24054E-12-0.31029E-12 0.54942E-13-0.29104E-12
 0.18051E+00-0.29676E-12-0.31744E-12 0.29285E-14-0.19976E-12 0.23335E-12-0.11415E-12-0.19976E-12 0.15880E-12
 0.18051E+00 0.31756E-12 0.29446E-12 0.25839E-12 0.19577E-12 0.20265E-13 0.18099E-12 0.19577E-12-0.10108E-12
 0.18051E+00 0.29681E-12 0.31748E-12 0.28515E-14 0.19981E-12 0.23332E-12-0.11424E-12 0.19981E-12 0.15877E-12
 0.18051E+00 0.34667E-12 0.34134E-12-0.26713E-12-0.54942E-13-0.24061E-12-0.31033E-12-0.54942E-13-0.29113E-12
 0.18051E+00 0.52809E-12 0.52284E-12-0.10510E-12-0.18684E-12-0.11623E-12-0.12586E-12-0.18684E-12-0.13632E-12
