# vtk DataFile Version 2.0
Pio_0002
ASCII
DATASET UNSTRUCTURED_GRID

POINTS        14 float
     0.00000     0.00000     0.00000
     1.09333     0.00000     0.00000
     1.09333     0.98027     0.00000
     0.00000     0.98027     0.00000
     0.00000     0.00000     0.98027
     1.09333     0.00000     0.98027
     1.09333     0.98027     0.98027
     0.00000     0.98027     0.98027
     0.54667     0.49013     0.00000
     0.54667     0.49013     0.98027
     0.54667     0.00000     0.49013
     1.09333     0.49013     0.49013
     0.54667     0.98027     0.49013
     0.00000     0.49013     0.49013

CELLS        24       120
4            8          12          13          11
4           10          13           9          11
4           10           8          13          11
4           13          12           9          11
4           13           4           0          10
4            9           4          10           5
4            7           9           4          13
4            7           3          12          13
4            3           0           8          13
4           12           7           9           6
4            3          12           8           2
4            6           5           9          11
4           11           5          10           1
4            0           8          10           1
4            2           6          12          11
4           11           8           2           1
4           13           0           8          10
4            9           4          13          10
4            9           7          12          13
4            8          12           3          13
4            5          10           9          11
4           12           8           2          11
4            9          12           6          11
4           11          10           8           1

CELL_TYPES        24
10
10
10
10
10
10
10
10
10
10
10
10
10
10
10
10
10
10
10
10
10
10
10
10

CELL_DATA        24
SCALARS Piolaaaa float 9
LOOKUP_TABLE default
 0.10681E+00 0.17005E-16-0.23807E-16 0.13463E-11 0.22226E-16-0.16669E-11 0.12756E-11 0.22226E-16-0.14242E-11
 0.10681E+00 0.47614E-16 0.91827E-16-0.16446E-11-0.22226E-16 0.13332E-11-0.14061E-11-0.22226E-16 0.12657E-11
 0.10681E+00 0.17005E-16-0.23807E-16-0.16446E-11-0.22226E-16-0.16669E-11-0.14061E-11-0.22226E-16-0.14242E-11
 0.10681E+00 0.47614E-16 0.91827E-16 0.13463E-11 0.22226E-16 0.13332E-11 0.12756E-11 0.22226E-16 0.12657E-11
 0.10681E+00 0.22602E-12 0.19891E-12 0.48288E-26 0.57787E-14 0.32796E-12 0.43294E-26 0.57787E-14 0.36579E-12
 0.10681E+00 0.34010E-17-0.85025E-16 0.10117E-11 0.44452E-16-0.13015E-11 0.90709E-12 0.44452E-16-0.10235E-11
 0.10681E+00-0.70400E-14-0.29265E-13 0.20223E-12 0.20657E-12 0.53615E-12 0.22556E-12 0.20657E-12 0.59799E-12
 0.10681E+00-0.32357E-13-0.11376E-13 0.53272E-12 0.21661E-12 0.20818E-12 0.59417E-12 0.21661E-12 0.23219E-12
 0.10681E+00 0.20619E-12 0.22228E-12 0.33049E-12 0.15825E-13 0.13325E-25 0.36861E-12 0.15825E-13 0.11947E-25
 0.10681E+00 0.34010E-17-0.85025E-16-0.60726E-12-0.44452E-16-0.61719E-12-0.45598E-12-0.44452E-16-0.46230E-12
 0.10681E+00 0.34010E-16 0.34010E-16-0.13274E-11-0.19843E-23 0.10335E-11-0.10455E-11-0.33834E-23 0.92663E-12
 0.10681E+00 0.70809E-14 0.29218E-13 0.20223E-12-0.20657E-12 0.53605E-12 0.22556E-12-0.20657E-12 0.59787E-12
 0.10681E+00-0.22598E-12-0.19895E-12-0.48280E-26-0.57787E-14 0.32791E-12-0.43287E-26-0.57787E-14 0.36574E-12
 0.10681E+00 0.34010E-16 0.34010E-16 0.19884E-11 0.64081E-23 0.19574E-11 0.17828E-11 0.64081E-23 0.17550E-11
 0.10681E+00 0.32405E-13 0.11335E-13 0.53272E-12-0.21661E-12 0.20813E-12 0.59417E-12-0.21661E-12 0.23214E-12
 0.10681E+00-0.20614E-12-0.22232E-12 0.33049E-12-0.15825E-13-0.13325E-25 0.36861E-12-0.15825E-13-0.11947E-25
 0.10681E+00 0.70921E-12 0.70143E-12 0.17190E-12-0.28438E-12 0.14528E-12 0.18835E-12-0.28438E-12 0.16542E-12
 0.10681E+00 0.41347E-12 0.39413E-12-0.31643E-12 0.29016E-12 0.15876E-13-0.24949E-12 0.29016E-12 0.12114E-12
 0.10681E+00 0.47341E-12 0.47052E-12 0.36955E-12-0.83591E-13 0.35805E-12 0.40979E-12-0.83591E-13 0.40173E-12
 0.10681E+00 0.39089E-12 0.41476E-12 0.94765E-14 0.30020E-12-0.31668E-12 0.11501E-12 0.30020E-12-0.24876E-12
 0.10681E+00-0.41341E-12-0.39412E-12-0.31643E-12-0.29014E-12 0.15801E-13-0.24949E-12-0.29014E-12 0.12106E-12
 0.10681E+00-0.39083E-12-0.41474E-12 0.94765E-14-0.30018E-12-0.31670E-12 0.11501E-12-0.30018E-12-0.24879E-12
 0.10681E+00-0.47335E-12-0.47050E-12 0.36955E-12 0.83569E-13 0.35797E-12 0.40979E-12 0.83569E-13 0.40165E-12
 0.10681E+00-0.70915E-12-0.70142E-12 0.17190E-12 0.28436E-12 0.14525E-12 0.18835E-12 0.28436E-12 0.16539E-12
