# vtk DataFile Version 2.0
Pio_0004
ASCII
DATASET UNSTRUCTURED_GRID

POINTS        14 float
     0.00000     0.00000     0.00000
     1.20000     0.00000     0.00000
     1.20000     0.95499     0.00000
     0.00000     0.95499     0.00000
     0.00000     0.00000     0.95499
     1.20000     0.00000     0.95499
     1.20000     0.95499     0.95499
     0.00000     0.95499     0.95499
     0.60000     0.47749     0.00000
     0.60000     0.47749     0.95499
     0.60000     0.00000     0.47749
     1.20000     0.47749     0.47749
     0.60000     0.95499     0.47749
     0.00000     0.47749     0.47749

CELLS        24       120
4            8          12          13          11
4           10          13           9          11
4           10           8          13          11
4           13          12           9          11
4           13           4           0          10
4            9           4          10           5
4            7           9           4          13
4            7           3          12          13
4            3           0           8          13
4           12           7           9           6
4            3          12           8           2
4            6           5           9          11
4           11           5          10           1
4            0           8          10           1
4            2           6          12          11
4           11           8           2           1
4           13           0           8          10
4            9           4          13          10
4            9           7          12          13
4            8          12           3          13
4            5          10           9          11
4           12           8           2          11
4            9          12           6          11
4           11          10           8           1

CELL_TYPES        24
10
10
10
10
10
10
10
10
10
10
10
10
10
10
10
10
10
10
10
10
10
10
10
10

CELL_DATA        24
SCALARS Piolaaaa float 9
LOOKUP_TABLE default
 0.26400E+00 0.59639E-16 0.26506E-16 0.35137E-12-0.21094E-16-0.44811E-12 0.31261E-12-0.21094E-16-0.32264E-12
 0.26400E+00-0.46386E-16 0.43403E-25-0.45812E-12 0.21094E-16 0.33726E-12-0.33159E-12 0.21094E-16 0.30238E-12
 0.26400E+00-0.46386E-16-0.57669E-25-0.45812E-12-0.21094E-16-0.44811E-12-0.33159E-12-0.21094E-16-0.32264E-12
 0.26400E+00 0.59639E-16 0.26506E-16 0.35137E-12 0.21094E-16 0.33726E-12 0.31261E-12 0.21094E-16 0.30238E-12
 0.26400E+00 0.87358E-13 0.76305E-13 0.83115E-27 0.38392E-14 0.78564E-13 0.66145E-27 0.38392E-14 0.98721E-13
 0.26400E+00 0.13253E-16 0.13253E-16 0.26352E-12-0.15429E-24-0.37258E-12 0.20972E-12-0.82026E-25-0.22411E-12
 0.26400E+00 0.15857E-13 0.42940E-14 0.45273E-13 0.45521E-13 0.12628E-12 0.56888E-13 0.45521E-13 0.15867E-12
 0.26400E+00 0.14333E-13 0.19992E-13 0.12288E-12 0.46450E-13 0.47711E-13 0.15441E-12 0.46450E-13 0.59952E-13
 0.26400E+00 0.73038E-13 0.79201E-13 0.77610E-13 0.47673E-14 0.10196E-26 0.97522E-13 0.47673E-14 0.81138E-27
 0.26400E+00 0.13253E-16 0.13253E-16-0.17298E-12 0.52360E-25-0.18435E-12-0.95941E-13 0.52685E-25-0.10275E-12
 0.26400E+00 0.13253E-16 0.13253E-16-0.36663E-12-0.85586E-25 0.27978E-12-0.22026E-12-0.16138E-24 0.22265E-12
 0.26400E+00-0.15857E-13-0.43006E-14 0.45273E-13-0.45479E-13 0.12628E-12 0.56888E-13-0.45479E-13 0.15867E-12
 0.26400E+00-0.87477E-13-0.76338E-13-0.83115E-27-0.38392E-14 0.78564E-13-0.66145E-27-0.38392E-14 0.98721E-13
 0.26400E+00 0.13253E-16 0.13253E-16 0.52185E-12 0.30554E-24 0.52971E-12 0.41530E-12 0.30554E-24 0.42155E-12
 0.26400E+00-0.14207E-13-0.19939E-13 0.12288E-12-0.46450E-13 0.47711E-13 0.15441E-12-0.46450E-13 0.59952E-13
 0.26400E+00-0.73051E-13-0.79207E-13 0.77610E-13-0.48095E-14-0.10286E-26 0.97522E-13-0.48095E-14-0.81856E-27
 0.26400E+00 0.18339E-12 0.18171E-12 0.31880E-13-0.57840E-13 0.40800E-13 0.41870E-13-0.57840E-13 0.49457E-13
 0.26400E+00 0.11231E-12 0.10294E-12-0.97284E-13 0.61680E-13-0.17659E-13-0.60921E-13 0.61680E-13 0.39132E-13
 0.26400E+00 0.11828E-12 0.11609E-12 0.89209E-13-0.16158E-13 0.76454E-13 0.10835E-12-0.16158E-13 0.99814E-13
 0.26400E+00 0.10439E-12 0.11223E-12-0.76164E-14 0.62608E-13-0.84166E-13 0.46196E-13 0.62608E-13-0.49994E-13
 0.26400E+00-0.11237E-12-0.10296E-12-0.97310E-13-0.61658E-13-0.17659E-13-0.60955E-13-0.61658E-13 0.39132E-13
 0.26400E+00-0.10433E-12-0.11221E-12-0.76429E-14-0.62629E-13-0.84166E-13 0.46162E-13-0.62629E-13-0.49994E-13
 0.26400E+00-0.11824E-12-0.11609E-12 0.89183E-13 0.16179E-13 0.76454E-13 0.10832E-12 0.16179E-13 0.99814E-13
 0.26400E+00-0.18344E-12-0.18172E-12 0.31853E-13 0.57819E-13 0.40800E-13 0.41836E-13 0.57819E-13 0.49457E-13
