# vtk DataFile Version 2.0
inputvtk
ASCII
DATASET UNSTRUCTURED_GRID

POINTS        14 float
         0.0000000000E+00         0.0000000000E+00         0.0000000000E+00
         0.1000000000E+01         0.0000000000E+00         0.0000000000E+00
         0.1000000000E+01         0.1000000000E+01         0.0000000000E+00
         0.0000000000E+00         0.1000000000E+01         0.0000000000E+00
         0.0000000000E+00         0.0000000000E+00         0.1000000000E+01
         0.1000000000E+01         0.0000000000E+00         0.1000000000E+01
         0.1000000000E+01         0.1000000000E+01         0.1000000000E+01
         0.0000000000E+00         0.1000000000E+01         0.1000000000E+01
         0.5000000000E+00         0.5000000000E+00         0.0000000000E+00
         0.5000000000E+00         0.5000000000E+00         0.1000000000E+01
         0.5000000000E+00         0.0000000000E+00         0.5000000000E+00
         0.1000000000E+01         0.5000000000E+00         0.5000000000E+00
         0.5000000000E+00         0.1000000000E+01         0.5000000000E+00
         0.0000000000E+00         0.5000000000E+00         0.5000000000E+00

CELLS        24       120
4            8          12          13          11
4           10          13           9          11
4           10           8          13          11
4           13          12           9          11
4           13           4           0          10
4            9           4          10           5
4            7           9           4          13
4            7           3          12          13
4            3           0           8          13
4           12           7           9           6
4            3          12           8           2
4            6           5           9          11
4           11           5          10           1
4            0           8          10           1
4            2           6          12          11
4           11           8           2           1
4           13           0           8          10
4            9           4          13          10
4            9           7          12          13
4            8          12           3          13
4            5          10           9          11
4           12           8           2          11
4            9          12           6          11
4           11          10           8           1

CELL_TYPES        24
10
10
10
10
10
10
10
10
10
10
10
10
10
10
10
10
10
10
10
10
10
10
10
10

POINT_DATA        14
SCALARS nodes_bc float 6
LOOKUP_TABLE default
         0.0000000000E+00         0.0000000000E+00         0.0000000000E+00
         0.0000000000E+00         0.0000000000E+00         0.0000000000E+00
         0.4000000000E-01         0.0000000000E+00         0.0000000000E+00
         0.0000000000E+00         0.0000000000E+00         0.0000000000E+00
         0.4000000000E-01         0.0000000000E+00         0.0000000000E+00
         0.0000000000E+00         0.0000000000E+00         0.0000000000E+00
         0.0000000000E+00         0.0000000000E+00         0.0000000000E+00
         0.0000000000E+00         0.0000000000E+00         0.0000000000E+00
         0.0000000000E+00         0.0000000000E+00         0.0000000000E+00
         0.0000000000E+00         0.0000000000E+00         0.0000000000E+00
         0.4000000000E-01         0.0000000000E+00         0.0000000000E+00
         0.0000000000E+00         0.0000000000E+00         0.0000000000E+00
         0.4000000000E-01         0.0000000000E+00         0.0000000000E+00
         0.0000000000E+00         0.0000000000E+00         0.0000000000E+00
         0.0000000000E+00         0.0000000000E+00         0.0000000000E+00
         0.0000000000E+00         0.0000000000E+00         0.0000000000E+00
         0.0000000000E+00         0.0000000000E+00         0.0000000000E+00
         0.0000000000E+00         0.0000000000E+00         0.0000000000E+00
         0.0000000000E+00         0.0000000000E+00         0.0000000000E+00
         0.0000000000E+00         0.0000000000E+00         0.0000000000E+00
         0.0000000000E+00         0.0000000000E+00         0.0000000000E+00
         0.0000000000E+00         0.0000000000E+00         0.0000000000E+00
         0.4000000000E-01         0.0000000000E+00         0.0000000000E+00
         0.0000000000E+00         0.0000000000E+00         0.0000000000E+00
         0.0000000000E+00         0.0000000000E+00         0.0000000000E+00
         0.0000000000E+00         0.0000000000E+00         0.0000000000E+00
         0.0000000000E+00         0.0000000000E+00         0.0000000000E+00
         0.0000000000E+00         0.0000000000E+00         0.0000000000E+00

CELL_DATA        24
SCALARS cellsind float 1
LOOKUP_TABLE default
 0.10000E+01
 0.20000E+01
 0.30000E+01
 0.40000E+01
 0.50000E+01
 0.60000E+01
 0.70000E+01
 0.80000E+01
 0.90000E+01
 0.10000E+02
 0.11000E+02
 0.12000E+02
 0.13000E+02
 0.14000E+02
 0.15000E+02
 0.16000E+02
 0.17000E+02
 0.18000E+02
 0.19000E+02
 0.20000E+02
 0.21000E+02
 0.22000E+02
 0.23000E+02
 0.24000E+02
