# vtk DataFile Version 2.0
Cau_0004
ASCII
DATASET UNSTRUCTURED_GRID

POINTS        14 float
     0.00000     0.00000     0.00000
     1.20000     0.00000     0.00000
     1.20000     0.95499     0.00000
     0.00000     0.95499     0.00000
     0.00000     0.00000     0.95499
     1.20000     0.00000     0.95499
     1.20000     0.95499     0.95499
     0.00000     0.95499     0.95499
     0.60000     0.47749     0.00000
     0.60000     0.47749     0.95499
     0.60000     0.00000     0.47749
     1.20000     0.47749     0.47749
     0.60000     0.95499     0.47749
     0.00000     0.47749     0.47749

CELLS        24       120
4            8          12          13          11
4           10          13           9          11
4           10           8          13          11
4           13          12           9          11
4           13           4           0          10
4            9           4          10           5
4            7           9           4          13
4            7           3          12          13
4            3           0           8          13
4           12           7           9           6
4            3          12           8           2
4            6           5           9          11
4           11           5          10           1
4            0           8          10           1
4            2           6          12          11
4           11           8           2           1
4           13           0           8          10
4            9           4          13          10
4            9           7          12          13
4            8          12           3          13
4            5          10           9          11
4           12           8           2          11
4            9          12           6          11
4           11          10           8           1

CELL_TYPES        24
10
10
10
10
10
10
10
10
10
10
10
10
10
10
10
10
10
10
10
10
10
10
10
10

CELL_DATA        24
SCALARS Cauchyyy float 6
LOOKUP_TABLE default
 0.28947E+00 0.52042E-16 0.23130E-16 0.38527E-12-0.18407E-16-0.49135E-12
 0.28947E+00-0.40477E-16 0.85466E-25-0.50232E-12 0.18407E-16 0.36981E-12
 0.28947E+00-0.40477E-16-0.11356E-24-0.50232E-12-0.18407E-16-0.49135E-12
 0.28947E+00 0.52042E-16 0.23130E-16 0.38527E-12 0.18407E-16 0.36981E-12
 0.28947E+00 0.76230E-13 0.66584E-13 0.91135E-27 0.33501E-14 0.86145E-13
 0.28947E+00 0.11565E-16 0.11565E-16 0.28895E-12-0.13464E-24-0.40853E-12
 0.28947E+00 0.13837E-13 0.37470E-14 0.49641E-13 0.39723E-13 0.13846E-12
 0.28947E+00 0.12507E-13 0.17446E-13 0.13474E-12 0.40532E-13 0.52315E-13
 0.28947E+00 0.63734E-13 0.69111E-13 0.85099E-13 0.41600E-14 0.11179E-26
 0.28947E+00 0.11565E-16 0.11565E-16-0.18967E-12 0.13747E-25-0.20214E-12
 0.28947E+00 0.11565E-16 0.11565E-16-0.40201E-12 0.84191E-26 0.30677E-12
 0.28947E+00-0.13837E-13-0.37528E-14 0.49641E-13-0.39686E-13 0.13846E-12
 0.28947E+00-0.76334E-13-0.66613E-13-0.91135E-27-0.33501E-14 0.86145E-13
 0.28947E+00 0.11565E-16 0.11565E-16 0.57220E-12 0.26662E-24 0.58082E-12
 0.28947E+00-0.12397E-13-0.17399E-13 0.13474E-12-0.40532E-13 0.52315E-13
 0.28947E+00-0.63745E-13-0.69117E-13 0.85099E-13-0.41968E-14-0.11278E-26
 0.28947E+00 0.16003E-12 0.15856E-12 0.34956E-13-0.50472E-13 0.44737E-13
 0.28947E+00 0.98000E-13 0.89830E-13-0.10667E-12 0.53822E-13-0.19363E-13
 0.28947E+00 0.10322E-12 0.10130E-12 0.97817E-13-0.14100E-13 0.83832E-13
 0.28947E+00 0.91090E-13 0.97937E-13-0.83514E-14 0.54632E-13-0.92288E-13
 0.28947E+00-0.98052E-13-0.89847E-13-0.10670E-12-0.53804E-13-0.19363E-13
 0.28947E+00-0.91038E-13-0.97919E-13-0.83804E-14-0.54651E-13-0.92288E-13
 0.28947E+00-0.10318E-12-0.10130E-12 0.97788E-13 0.14118E-13 0.83832E-13
 0.28947E+00-0.16007E-12-0.15857E-12 0.34927E-13 0.50454E-13 0.44737E-13
