# vtk DataFile Version 2.0
Cau_0003
ASCII
DATASET UNSTRUCTURED_GRID

POINTS        14 float
     0.00000     0.00000     0.00000
     1.14667     0.00000     0.00000
     1.14667     0.96800     0.00000
     0.00000     0.96800     0.00000
     0.00000     0.00000     0.96800
     1.14667     0.00000     0.96800
     1.14667     0.96800     0.96800
     0.00000     0.96800     0.96800
     0.57333     0.48400     0.00000
     0.57333     0.48400     0.96800
     0.57333     0.00000     0.48400
     1.14667     0.48400     0.48400
     0.57333     0.96800     0.48400
     0.00000     0.48400     0.48400

CELLS        24       120
4            8          12          13          11
4           10          13           9          11
4           10           8          13          11
4           13          12           9          11
4           13           4           0          10
4            9           4          10           5
4            7           9           4          13
4            7           3          12          13
4            3           0           8          13
4           12           7           9           6
4            3          12           8           2
4            6           5           9          11
4           11           5          10           1
4            0           8          10           1
4            2           6          12          11
4           11           8           2           1
4           13           0           8          10
4            9           4          13          10
4            9           7          12          13
4            8          12           3          13
4            5          10           9          11
4           12           8           2          11
4            9          12           6          11
4           11          10           8           1

CELL_TYPES        24
10
10
10
10
10
10
10
10
10
10
10
10
10
10
10
10
10
10
10
10
10
10
10
10

CELL_DATA        24
SCALARS Cauchyyy float 6
LOOKUP_TABLE default
 0.19264E+00 0.87745E-16 0.60514E-17-0.10779E-11-0.24406E-23 0.13430E-11
 0.19264E+00 0.60514E-17 0.87745E-16 0.13582E-11-0.57059E-24-0.10462E-11
 0.19264E+00-0.21180E-16-0.21180E-16 0.13582E-11-0.39052E-16 0.13430E-11
 0.19264E+00 0.11498E-15 0.11498E-15-0.10779E-11 0.39052E-16-0.10462E-11
 0.19264E+00-0.19425E-12-0.16863E-12 0.59545E-26-0.80837E-14-0.25081E-12
 0.19264E+00 0.45385E-16 0.45385E-16-0.80672E-12-0.13644E-23 0.10895E-11
 0.19264E+00-0.19579E-13 0.60362E-14-0.14949E-12-0.12688E-12-0.40692E-12
 0.19264E+00-0.12024E-13-0.25927E-13-0.39871E-12-0.13047E-12-0.15612E-12
 0.19264E+00-0.16442E-12-0.17833E-12-0.24922E-12-0.11676E-13 0.85464E-26
 0.19264E+00 0.18154E-16-0.60514E-16 0.50774E-12-0.39052E-16 0.53272E-12
 0.19264E+00-0.60514E-16 0.18154E-16 0.10840E-11 0.39052E-16-0.84501E-12
 0.19264E+00 0.19685E-13-0.59364E-14-0.14949E-12 0.12688E-12-0.40698E-12
 0.19264E+00 0.19425E-12 0.16871E-12-0.59257E-26 0.80446E-14-0.25081E-12
 0.19264E+00 0.45385E-16 0.45385E-16-0.15825E-11 0.26766E-23-0.15911E-11
 0.19264E+00 0.12106E-13 0.25927E-13-0.39876E-12 0.13051E-12-0.15617E-12
 0.19264E+00 0.16440E-12 0.17831E-12-0.24927E-12 0.11676E-13-0.85483E-26
 0.19264E+00-0.47573E-12-0.47100E-12-0.11213E-12 0.16829E-12-0.12402E-12
 0.19264E+00-0.28604E-12-0.26515E-12 0.27578E-12-0.17638E-12 0.21654E-13
 0.19264E+00-0.31219E-12-0.30747E-12-0.28505E-12 0.49498E-13-0.25670E-12
 0.19264E+00-0.26736E-12-0.28599E-12 0.31253E-14-0.17997E-12 0.24903E-12
 0.19264E+00 0.28610E-12 0.26528E-12 0.27575E-12 0.17638E-12 0.21626E-13
 0.19264E+00 0.26740E-12 0.28603E-12 0.30431E-14 0.18001E-12 0.24900E-12
 0.19264E+00 0.31233E-12 0.30752E-12-0.28508E-12-0.49498E-13-0.25678E-12
 0.19264E+00 0.47576E-12 0.47104E-12-0.11216E-12-0.16833E-12-0.12404E-12
