# vtk DataFile Version 2.0
Cau_0002
ASCII
DATASET UNSTRUCTURED_GRID

POINTS        14 float
     0.00000     0.00000     0.00000
     1.09333     0.00000     0.00000
     1.09333     0.98027     0.00000
     0.00000     0.98027     0.00000
     0.00000     0.00000     0.98027
     1.09333     0.00000     0.98027
     1.09333     0.98027     0.98027
     0.00000     0.98027     0.98027
     0.54667     0.49013     0.00000
     0.54667     0.49013     0.98027
     0.54667     0.00000     0.49013
     1.09333     0.49013     0.49013
     0.54667     0.98027     0.49013
     0.00000     0.49013     0.49013

CELLS        24       120
4            8          12          13          11
4           10          13           9          11
4           10           8          13          11
4           13          12           9          11
4           13           4           0          10
4            9           4          10           5
4            7           9           4          13
4            7           3          12          13
4            3           0           8          13
4           12           7           9           6
4            3          12           8           2
4            6           5           9          11
4           11           5          10           1
4            0           8          10           1
4            2           6          12          11
4           11           8           2           1
4           13           0           8          10
4            9           4          13          10
4            9           7          12          13
4            8          12           3          13
4            5          10           9          11
4           12           8           2          11
4            9          12           6          11
4           11          10           8           1

CELL_TYPES        24
10
10
10
10
10
10
10
10
10
10
10
10
10
10
10
10
10
10
10
10
10
10
10
10

CELL_DATA        24
SCALARS Cauchyyy float 6
LOOKUP_TABLE default
 0.11115E+00 0.15866E-16-0.22213E-16 0.14011E-11 0.20738E-16-0.17347E-11
 0.11115E+00 0.44426E-16 0.85678E-16-0.17114E-11-0.20738E-16 0.13874E-11
 0.11115E+00 0.15866E-16-0.22213E-16-0.17114E-11-0.20738E-16-0.17347E-11
 0.11115E+00 0.44426E-16 0.85678E-16 0.14011E-11 0.20738E-16 0.13874E-11
 0.11115E+00 0.21089E-12 0.18559E-12 0.50251E-26 0.53918E-14 0.34130E-12
 0.11115E+00 0.31733E-17-0.79332E-16 0.10529E-11 0.41475E-16-0.13545E-11
 0.11115E+00-0.65687E-14-0.27306E-13 0.21046E-12 0.19274E-12 0.55795E-12
 0.11115E+00-0.30191E-13-0.10615E-13 0.55439E-12 0.20211E-12 0.21665E-12
 0.11115E+00 0.19238E-12 0.20740E-12 0.34393E-12 0.14765E-13 0.13867E-25
 0.11115E+00 0.31733E-17-0.79332E-16-0.63195E-12-0.41475E-16-0.64229E-12
 0.11115E+00 0.31733E-16 0.31733E-16-0.13814E-11-0.39537E-24 0.10755E-11
 0.11115E+00 0.66068E-14 0.27262E-13 0.21046E-12-0.19274E-12 0.55784E-12
 0.11115E+00-0.21085E-12-0.18563E-12-0.50244E-26-0.53918E-14 0.34125E-12
 0.11115E+00 0.31733E-16 0.31733E-16 0.20692E-11 0.59790E-23 0.20370E-11
 0.11115E+00 0.30235E-13 0.10577E-13 0.55439E-12-0.20211E-12 0.21660E-12
 0.11115E+00-0.19234E-12-0.20744E-12 0.34393E-12-0.14765E-13-0.13867E-25
 0.11115E+00 0.66173E-12 0.65447E-12 0.17889E-12-0.26534E-12 0.15118E-12
 0.11115E+00 0.38579E-12 0.36774E-12-0.32929E-12 0.27073E-12 0.16521E-13
 0.11115E+00 0.44171E-12 0.43901E-12 0.38457E-12-0.77995E-13 0.37261E-12
 0.11115E+00 0.36471E-12 0.38699E-12 0.98618E-14 0.28010E-12-0.32956E-12
 0.11115E+00-0.38573E-12-0.36773E-12-0.32929E-12-0.27071E-12 0.16444E-13
 0.11115E+00-0.36466E-12-0.38697E-12 0.98618E-14-0.28008E-12-0.32958E-12
 0.11115E+00-0.44165E-12-0.43900E-12 0.38457E-12 0.77974E-13 0.37253E-12
 0.11115E+00-0.66167E-12-0.65445E-12 0.17889E-12 0.26532E-12 0.15116E-12
