# vtk DataFile Version 2.0
Cau_0001
ASCII
DATASET UNSTRUCTURED_GRID

POINTS        14 float
     0.00000     0.00000     0.00000
     1.04000     0.00000     0.00000
     1.04000     0.99181     0.00000
     0.00000     0.99181     0.00000
     0.00000     0.00000     0.99181
     1.04000     0.00000     0.99181
     1.04000     0.99181     0.99181
     0.00000     0.99181     0.99181
     0.52000     0.49590     0.00000
     0.52000     0.49590     0.99181
     0.52000     0.00000     0.49590
     1.04000     0.49590     0.49590
     0.52000     0.99181     0.49590
     0.00000     0.49590     0.49590

CELLS        24       120
4            8          12          13          11
4           10          13           9          11
4           10           8          13          11
4           13          12           9          11
4           13           4           0          10
4            9           4          10           5
4            7           9           4          13
4            7           3          12          13
4            3           0           8          13
4           12           7           9           6
4            3          12           8           2
4            6           5           9          11
4           11           5          10           1
4            0           8          10           1
4            2           6          12          11
4           11           8           2           1
4           13           0           8          10
4            9           4          13          10
4            9           7          12          13
4            8          12           3          13
4            5          10           9          11
4           12           8           2          11
4            9          12           6          11
4           11          10           8           1

CELL_TYPES        24
10
10
10
10
10
10
10
10
10
10
10
10
10
10
10
10
10
10
10
10
10
10
10
10

CELL_DATA        24
SCALARS Cauchyyy float 6
LOOKUP_TABLE default
 0.43136E-01 0.97578E-16 0.10008E-16-0.10252E-12-0.53655E-25 0.17118E-12
 0.43136E-01 0.91740E-17 0.96744E-16 0.14651E-12-0.79423E-26-0.11335E-12
 0.43136E-01-0.20016E-16-0.20016E-16 0.14651E-12-0.44116E-16 0.17118E-12
 0.43136E-01 0.12593E-15 0.12593E-15-0.10252E-12 0.44116E-16-0.11335E-12
 0.43136E-01-0.38531E-15-0.79731E-14-0.41033E-27 0.48527E-14-0.33324E-13
 0.43136E-01 0.23352E-16-0.64218E-16-0.74669E-13 0.44116E-16 0.11733E-12
 0.43136E-01 0.96886E-14-0.11643E-14-0.19306E-13-0.29866E-13-0.52000E-13
 0.43136E-01 0.15843E-13 0.16901E-13-0.55589E-13-0.33616E-13-0.18675E-13
 0.43136E-01-0.15758E-13-0.11435E-13-0.36283E-13 0.11029E-14-0.10154E-27
 0.43136E-01-0.93408E-16-0.93408E-16 0.36008E-13-0.88231E-16 0.27605E-13
 0.43136E-01-0.65052E-16 0.22518E-16 0.13725E-12 0.44116E-16-0.65004E-13
 0.43136E-01-0.97320E-14 0.11192E-14-0.19354E-13 0.29866E-13-0.52097E-13
 0.43136E-01 0.33860E-15 0.79272E-14 0.41093E-27-0.48527E-14-0.33373E-13
 0.43136E-01 0.52542E-16 0.52542E-16-0.20987E-12 0.73718E-25-0.18403E-12
 0.43136E-01-0.15888E-13-0.16945E-13-0.55686E-13 0.33616E-13-0.18724E-13
 0.43136E-01 0.15713E-13 0.11390E-13-0.36332E-13-0.11029E-14 0.10167E-27
 0.43136E-01-0.62170E-13-0.61112E-13-0.31667E-13 0.34631E-13-0.64106E-14
 0.43136E-01-0.24420E-13-0.33067E-13 0.35931E-13-0.29778E-13 0.20245E-14
 0.43136E-01-0.41337E-13-0.43543E-13-0.33222E-13-0.88231E-16-0.42837E-13
 0.43136E-01-0.29029E-13-0.25766E-13 0.17399E-13-0.33528E-13 0.53100E-13
 0.43136E-01 0.24448E-13 0.33095E-13 0.35907E-13 0.29822E-13 0.19517E-14
 0.43136E-01 0.29058E-13 0.25795E-13 0.17326E-13 0.33572E-13 0.53076E-13
 0.43136E-01 0.41366E-13 0.43571E-13-0.33294E-13 0.44116E-16-0.42910E-13
 0.43136E-01 0.62199E-13 0.61141E-13-0.31692E-13-0.34675E-13-0.64348E-14
