# vtk DataFile Version 2.0
VM_0001 
ASCII
DATASET UNSTRUCTURED_GRID

POINTS        14 float
     0.00000     0.00000     0.00000
     1.04000     0.00000     0.00000
     1.04000     0.99181     0.00000
     0.00000     0.99181     0.00000
     0.00000     0.00000     0.99181
     1.04000     0.00000     0.99181
     1.04000     0.99181     0.99181
     0.00000     0.99181     0.99181
     0.52000     0.49590     0.00000
     0.52000     0.49590     0.99181
     0.52000     0.00000     0.49590
     1.04000     0.49590     0.49590
     0.52000     0.99181     0.49590
     0.00000     0.49590     0.49590

CELLS        24       120
4            8          12          13          11
4           10          13           9          11
4           10           8          13          11
4           13          12           9          11
4           13           4           0          10
4            9           4          10           5
4            7           9           4          13
4            7           3          12          13
4            3           0           8          13
4           12           7           9           6
4            3          12           8           2
4            6           5           9          11
4           11           5          10           1
4            0           8          10           1
4            2           6          12          11
4           11           8           2           1
4           13           0           8          10
4            9           4          13          10
4            9           7          12          13
4            8          12           3          13
4            5          10           9          11
4           12           8           2          11
4            9          12           6          11
4           11          10           8           1

CELL_TYPES        24
10
10
10
10
10
10
10
10
10
10
10
10
10
10
10
10
10
10
10
10
10
10
10
10

CELL_DATA        24
SCALARS Von_Miss float 1
LOOKUP_TABLE default
 0.43136E-01
 0.43136E-01
 0.43136E-01
 0.43136E-01
 0.43136E-01
 0.43136E-01
 0.43136E-01
 0.43136E-01
 0.43136E-01
 0.43136E-01
 0.43136E-01
 0.43136E-01
 0.43136E-01
 0.43136E-01
 0.43136E-01
 0.43136E-01
 0.43136E-01
 0.43136E-01
 0.43136E-01
 0.43136E-01
 0.43136E-01
 0.43136E-01
 0.43136E-01
 0.43136E-01
